# vtk DataFile Version 3.0
vtk output
ASCII
DATASET UNSTRUCTURED_GRID
POINTS 125 double
0 0.4895 0
0.156014 0.324817 0
0.432078 0.450788 0
0.410483 0.564836 0
0 0.868345 0
0 0.4895 0
0.528319 0.0610582 0
0.527504 0 0
0.808533 0 0
0.75106 0.119633 0
0.711717 0.146247 0
0.705516 0.146531 0
0.528319 0.0610582 0
1 0.236413 0
1 0.444499 0
0.935299 0.424781 0
0.773695 0.141353 0
1 0.236413 0
0.496901 0.293238 0
0.705516 0.146531 0
0.711717 0.146247 0
0.724378 0.406858 0
0.670879 0.43021 0
0.516303 0.347321 0
0.496901 0.293238 0
0.808533 0 0
1 0 0
1 0.236413 0
0.773695 0.141353 0
0.75106 0.119633 0
0.808533 0 0
0.404457 0.192895 0
0.528319 0.0610582 0
0.705516 0.146531 0
0.496901 0.293238 0
0.40094 0.202726 0
0.404457 0.192895 0
0 0.0868223 0
0.144796 0.0763156 0
0.20002 0.250834 0
0.156014 0.324817 0
0 0.4895 0
0 0.0868223 0
0 0.868345 0
0.410483 0.564836 0
0.597463 0.600727 0
0.5995 0.666658 0
0.511003 0.735276 0
0 0.922428 0
0 0.868345 0
0.711717 0.146247 0
0.75106 0.119633 0
0.773695 0.141353 0
0.935299 0.424781 0
0.724378 0.406858 0
0.711717 0.146247 0
0 0 0
0.158355 0 0
0.144796 0.0763156 0
0 0.0868223 0
0 0 0
0.516303 0.347321 0
0.670879 0.43021 0
0.637545 0.557278 0
0.597463 0.600727 0
0.410483 0.564836 0
0.432078 0.450788 0
0.516303 0.347321 0
0.144796 0.0763156 0
0.158355 0 0
0.346855 0 0
0.404457 0.192895 0
0.40094 0.202726 0
0.20002 0.250834 0
0.144796 0.0763156 0
0.637545 0.557278 0
0.670879 0.43021 0
0.724378 0.406858 0
0.935299 0.424781 0
1 0.444499 0
1 0.707407 0
0.928045 0.714288 0
0.637545 0.557278 0
0.346855 0 0
0.527504 0 0
0.528319 0.0610582 0
0.404457 0.192895 0
0.346855 0 0
0.5995 0.666658 0
0.700597 0.802908 0
0.686009 0.829884 0
0.629624 0.88124 0
0.511003 0.735276 0
0.5995 0.666658 0
0.156014 0.324817 0
0.20002 0.250834 0
0.40094 0.202726 0
0.496901 0.293238 0
0.516303 0.347321 0
0.432078 0.450788 0
0.156014 0.324817 0
0 0.922428 0
0.511003 0.735276 0
0.629624 0.88124 0
0.53519 1 0
0 1 0
0 0.922428 0
0.597463 0.600727 0
0.637545 0.557278 0
0.928045 0.714288 0
0.700597 0.802908 0
0.5995 0.666658 0
0.597463 0.600727 0
0.686009 0.829884 0
0.828274 1 0
0.53519 1 0
0.629624 0.88124 0
0.686009 0.829884 0
0.700597 0.802908 0
0.928045 0.714288 0
1 0.707407 0
1 1 0
0.828274 1 0
0.686009 0.829884 0
0.700597 0.802908 0
CELLS 20 145
6 0 1 2 3 4 5
7 6 7 8 9 10 11 12
5 13 14 15 16 17
7 18 19 20 21 22 23 24
6 25 26 27 28 29 30
6 31 32 33 34 35 36
6 37 38 39 40 41 42
7 43 44 45 46 47 48 49
6 50 51 52 53 54 55
5 56 57 58 59 60
7 61 62 63 64 65 66 67
7 68 69 70 71 72 73 74
8 75 76 77 78 79 80 81 82
5 83 84 85 86 87
6 88 89 90 91 92 93
7 94 95 96 97 98 99 100
6 101 102 103 104 105 106
6 107 108 109 110 111 112
5 113 114 115 116 117
7 118 119 120 121 122 123 124
CELL_TYPES 20
7
7
7
7
7
7
7
7
7
7
7
7
7
7
7
7
7
7
7
7
CELL_DATA 20
FIELD FieldData 6
weight 1 20 float
 0 0 0 0 0 0 0 0 0 0 0 0 0 0 0 0 0 0 0 0
num 1 20 float
 5 7 14 2 10 16 6 0 13 19 4 8 1 17 3 9 18 11 12 15
kind 1 20 float
 0 0 0 0 0 0 0 0 0 0 0 0 0 0 0 0 0 0 0 0
centroid_x 1 20 float
 0.177085 0.667894 0.919315 0.634954 0.897257 0.538887 0.0799632 0.328186 0.793633 0.0741368 0.540761 0.268053 0.844565 0.437185 0.610045 0.352534 0.342889 0.728394 0.680793 0.876998
centroid_y 1 20 float
 0.562789 0.0557748 0.289373 0.301759 0.0988664 0.173535 0.246633 0.725548 0.300454 0.0401945 0.484588 0.115668 0.542932 0.0679701 0.772624 0.318258 0.901585 0.685458 0.941881 0.860159
centroid_z 1 20 float
 0 0 0 0 0 0 0 0 0 0 0 0 0 0 0 0 0 0 0 0
