# vtk DataFile Version 3.0
vtk output
ASCII
DATASET UNSTRUCTURED_GRID
POINTS 1346 double
0.191721 0.496908 0
0.192121 0.49655 0
0.293206 0.573202 0
0.288371 0.58054 0
0.215003 0.608307 0
0.191721 0.496908 0
0.406086 0.265001 0
0.421739 0.26035 0
0.433808 0.261282 0
0.437553 0.276049 0
0.414857 0.374307 0
0.36901 0.354436 0
0.366523 0.32803 0
0.367715 0.322974 0
0.406086 0.265001 0
0 0 0
0.118852 0 0
0.118642 0.0143918 0
0.0852838 0.0496012 0
0 0.0425887 0
0 0 0
0 0.0546514 0
0.0615029 0.14093 0
0.0640689 0.153012 0
0.0361703 0.177877 0
0 0.196788 0
0 0.0546514 0
0.576103 0.237471 0
0.57844 0.249622 0
0.498204 0.334556 0
0.516212 0.221123 0
0.534965 0.197212 0
0.576103 0.237471 0
0 0.0425887 0
0.0852838 0.0496012 0
0.0931175 0.0742858 0
0.0615029 0.14093 0
0 0.0546514 0
0 0.0425887 0
0.133045 0.109768 0
0.0931175 0.0742858 0
0.0852838 0.0496012 0
0.118642 0.0143918 0
0.180153 0.0727327 0
0.176112 0.0881631 0
0.133045 0.109768 0
0.437553 0.276049 0
0.494247 0.342268 0
0.487308 0.362548 0
0.440877 0.391321 0
0.414857 0.374307 0
0.437553 0.276049 0
0.148441 0.195901 0
0.137068 0.183692 0
0.133045 0.109768 0
0.176112 0.0881631 0
0.207958 0.150875 0
0.148441 0.195901 0
0.0615029 0.14093 0
0.0931175 0.0742858 0
0.133045 0.109768 0
0.137068 0.183692 0
0.0640689 0.153012 0
0.0615029 0.14093 0
0.303095 0.523601 0
0.329444 0.505656 0
0.343436 0.504675 0
0.431383 0.547593 0
0.347532 0.56622 0
0.299788 0.564931 0
0.303095 0.523601 0
0.209998 0 0
0.259836 0 0
0.279094 0.068761 0
0.269597 0.0968563 0
0.266896 0.0995858 0
0.214869 0.0709972 0
0.209998 0 0
0.118852 0 0
0.209998 0 0
0.214869 0.0709972 0
0.180153 0.0727327 0
0.118642 0.0143918 0
0.118852 0 0
0.338933 0.401083 0
0.36901 0.354436 0
0.414857 0.374307 0
0.440877 0.391321 0
0.440871 0.402733 0
0.337996 0.441405 0
0.338933 0.401083 0
0.259836 0 0
0.3745 0 0
0.371927 0.0240288 0
0.279094 0.068761 0
0.259836 0 0
0.343436 0.504675 0
0.424008 0.444368 0
0.443406 0.547964 0
0.431383 0.547593 0
0.343436 0.504675 0
0.269597 0.0968563 0
0.279094 0.068761 0
0.371927 0.0240288 0
0.389135 0.0678668 0
0.365989 0.0908596 0
0.269597 0.0968563 0
0.440871 0.402733 0
0.44102 0.405473 0
0.424008 0.444368 0
0.343436 0.504675 0
0.329444 0.505656 0
0.337996 0.441405 0
0.440871 0.402733 0
0.176112 0.0881631 0
0.180153 0.0727327 0
0.214869 0.0709972 0
0.266896 0.0995858 0
0.264292 0.122843 0
0.242807 0.149573 0
0.207958 0.150875 0
0.176112 0.0881631 0
0.242807 0.149573 0
0.264292 0.122843 0
0.31421 0.169779 0
0.317801 0.210001 0
0.251659 0.221482 0
0.242807 0.149573 0
0.338933 0.401083 0
0.337996 0.441405 0
0.329444 0.505656 0
0.303095 0.523601 0
0.263648 0.480547 0
0.27874 0.454598 0
0.338933 0.401083 0
0.266896 0.0995858 0
0.269597 0.0968563 0
0.365989 0.0908596 0
0.356763 0.126193 0
0.31421 0.169779 0
0.264292 0.122843 0
0.266896 0.0995858 0
0.445252 0.548568 0
0.443406 0.547964 0
0.424008 0.444368 0
0.44102 0.405473 0
0.493392 0.469885 0
0.445252 0.548568 0
0 0.204976 0
0.0698606 0.274853 0
0.0433848 0.321577 0
0 0.317592 0
0 0.204976 0
0.0640689 0.153012 0
0.137068 0.183692 0
0.148441 0.195901 0
0.149564 0.202708 0
0.13528 0.227182 0
0.111733 0.238567 0
0.0361703 0.177877 0
0.0640689 0.153012 0
0.445252 0.548568 0
0.493392 0.469885 0
0.497809 0.46853 0
0.526928 0.532408 0
0.506362 0.563972 0
0.49059 0.580651 0
0.468597 0.576602 0
0.445252 0.548568 0
0 0.196788 0
0.0361703 0.177877 0
0.111733 0.238567 0
0.0698606 0.274853 0
0 0.204976 0
0 0.196788 0
0 0.317592 0
0.0433848 0.321577 0
0.0709379 0.364718 0
0 0.433723 0
0 0.317592 0
0.44102 0.405473 0
0.440871 0.402733 0
0.440877 0.391321 0
0.487308 0.362548 0
0.505288 0.384112 0
0.519642 0.416353 0
0.52201 0.433282 0
0.497809 0.46853 0
0.493392 0.469885 0
0.44102 0.405473 0
0.56787 0.0109002 0
0.567322 0 0
0.632794 0 0
0.650622 0.0903652 0
0.642296 0.0910648 0
0.603193 0.0826123 0
0.56787 0.0109002 0
0.0789647 0.365874 0
0.135406 0.228366 0
0.145474 0.253567 0
0.152017 0.331714 0
0.0995134 0.37305 0
0.0968133 0.373792 0
0.0789647 0.365874 0
0.542886 0.0822632 0
0.56787 0.0109002 0
0.603193 0.0826123 0
0.575432 0.139987 0
0.544694 0.153614 0
0.542886 0.0822632 0
0.0433848 0.321577 0
0.0698606 0.274853 0
0.111733 0.238567 0
0.13528 0.227182 0
0.135406 0.228366 0
0.0789647 0.365874 0
0.0709379 0.364718 0
0.0433848 0.321577 0
0.632794 0 0
0.698523 0 0
0.688131 0.104372 0
0.650622 0.0903652 0
0.632794 0 0
0.698523 0 0
0.726528 0 0
0.749328 0.0808172 0
0.74051 0.108541 0
0.690875 0.1066 0
0.688131 0.104372 0
0.698523 0 0
0.148441 0.195901 0
0.207958 0.150875 0
0.242807 0.149573 0
0.251659 0.221482 0
0.246494 0.226788 0
0.149564 0.202708 0
0.148441 0.195901 0
0.145474 0.253567 0
0.233463 0.27093 0
0.20896 0.328969 0
0.152017 0.331714 0
0.145474 0.253567 0
0.534965 0.197212 0
0.535701 0.170234 0
0.544694 0.153614 0
0.575432 0.139987 0
0.622773 0.193949 0
0.576103 0.237471 0
0.534965 0.197212 0
0.575432 0.139987 0
0.603193 0.0826123 0
0.642296 0.0910648 0
0.638071 0.195167 0
0.622773 0.193949 0
0.575432 0.139987 0
0.153675 0.397388 0
0.0995134 0.37305 0
0.152017 0.331714 0
0.20896 0.328969 0
0.221369 0.363158 0
0.153675 0.397388 0
0.638071 0.195167 0
0.642296 0.0910648 0
0.650622 0.0903652 0
0.688131 0.104372 0
0.690875 0.1066 0
0.692921 0.167314 0
0.668898 0.199335 0
0.661093 0.204583 0
0.638071 0.195167 0
0.149564 0.202708 0
0.246494 0.226788 0
0.243131 0.255545 0
0.233463 0.27093 0
0.145474 0.253567 0
0.135406 0.228366 0
0.13528 0.227182 0
0.149564 0.202708 0
0.583781 0.25422 0
0.57844 0.249622 0
0.576103 0.237471 0
0.622773 0.193949 0
0.638071 0.195167 0
0.661093 0.204583 0
0.673138 0.26236 0
0.642356 0.269907 0
0.583781 0.25422 0
0.27374 0.292544 0
0.338294 0.244164 0
0.367715 0.322974 0
0.366523 0.32803 0
0.349405 0.330332 0
0.281637 0.324991 0
0.27374 0.292544 0
0.692921 0.167314 0
0.690875 0.1066 0
0.74051 0.108541 0
0.775168 0.166882 0
0.78232 0.184248 0
0.773722 0.190961 0
0.692921 0.167314 0
0.668898 0.199335 0
0.692921 0.167314 0
0.773722 0.190961 0
0.747777 0.25833 0
0.668898 0.199335 0
0.20896 0.328969 0
0.233463 0.27093 0
0.243131 0.255545 0
0.27374 0.292544 0
0.281637 0.324991 0
0.234121 0.377987 0
0.221369 0.363158 0
0.20896 0.328969 0
0.661093 0.204583 0
0.668898 0.199335 0
0.747777 0.25833 0
0.742602 0.322446 0
0.673138 0.26236 0
0.661093 0.204583 0
0.243131 0.255545 0
0.246494 0.226788 0
0.251659 0.221482 0
0.317801 0.210001 0
0.33525 0.221497 0
0.338294 0.244164 0
0.27374 0.292544 0
0.243131 0.255545 0
0.773722 0.190961 0
0.78232 0.184248 0
0.800534 0.193201 0
0.772801 0.33345 0
0.771043 0.336815 0
0.750873 0.333753 0
0.746071 0.330377 0
0.742602 0.322446 0
0.747777 0.25833 0
0.773722 0.190961 0
0.3745 0 0
0.48497 0 0
0.415008 0.070168 0
0.389135 0.0678668 0
0.371927 0.0240288 0
0.3745 0 0
0.726528 0 0
0.823772 0 0
0.800187 0.054364 0
0.749328 0.0808172 0
0.726528 0 0
0.823772 0 0
0.849207 0 0
0.864679 0.134758 0
0.821132 0.0986199 0
0.800187 0.054364 0
0.823772 0 0
0.31421 0.169779 0
0.356763 0.126193 0
0.400511 0.183507 0
0.390554 0.201858 0
0.33525 0.221497 0
0.317801 0.210001 0
0.31421 0.169779 0
0.74051 0.108541 0
0.749328 0.0808172 0
0.800187 0.054364 0
0.821132 0.0986199 0
0.775168 0.166882 0
0.74051 0.108541 0
0.356763 0.126193 0
0.365989 0.0908596 0
0.389135 0.0678668 0
0.415008 0.070168 0
0.422948 0.0940786 0
0.412387 0.170709 0
0.400511 0.183507 0
0.356763 0.126193 0
0.821132 0.0986199 0
0.864679 0.134758 0
0.870015 0.146659 0
0.868731 0.149025 0
0.816785 0.193869 0
0.800534 0.193201 0
0.78232 0.184248 0
0.775168 0.166882 0
0.821132 0.0986199 0
0.849207 0 0
0.886486 0 0
0.900313 0.0765784 0
0.881887 0.142589 0
0.870015 0.146659 0
0.864679 0.134758 0
0.849207 0 0
0.47455 0.164909 0
0.493975 0.0889071 0
0.496188 0.0868549 0
0.542886 0.0822632 0
0.544694 0.153614 0
0.535701 0.170234 0
0.482242 0.169448 0
0.47455 0.164909 0
0.886486 0 0
1 0 0
1 0.0131135 0
0.900313 0.0765784 0
0.886486 0 0
1 0.0416925 0
1 0.147107 0
0.905137 0.132399 0
1 0.0416925 0
0.496188 0.0868549 0
0.49871 0 0
0.567322 0 0
0.56787 0.0109002 0
0.542886 0.0822632 0
0.496188 0.0868549 0
0.885926 0.143879 0
0.905137 0.132399 0
1 0.147107 0
1 0.222501 0
0.999379 0.222319 0
0.885926 0.143879 0
0.900313 0.0765784 0
1 0.0131135 0
1 0.0416925 0
0.905137 0.132399 0
0.885926 0.143879 0
0.881887 0.142589 0
0.900313 0.0765784 0
0.493975 0.0889071 0
0.422948 0.0940786 0
0.415008 0.070168 0
0.48497 0 0
0.49871 0 0
0.496188 0.0868549 0
0.493975 0.0889071 0
0.800534 0.193201 0
0.816785 0.193869 0
0.845511 0.244433 0
0.836965 0.275096 0
0.772801 0.33345 0
0.800534 0.193201 0
0.412387 0.170709 0
0.422948 0.0940786 0
0.493975 0.0889071 0
0.47455 0.164909 0
0.412387 0.170709 0
0.816785 0.193869 0
0.868731 0.149025 0
0.903581 0.229821 0
0.886603 0.249319 0
0.845511 0.244433 0
0.816785 0.193869 0
0.338294 0.244164 0
0.33525 0.221497 0
0.390554 0.201858 0
0.406086 0.265001 0
0.367715 0.322974 0
0.338294 0.244164 0
0.868731 0.149025 0
0.870015 0.146659 0
0.881887 0.142589 0
0.885926 0.143879 0
0.999379 0.222319 0
0.903581 0.229821 0
0.868731 0.149025 0
0.845511 0.244433 0
0.886603 0.249319 0
0.904806 0.303973 0
0.896554 0.327145 0
0.864621 0.361442 0
0.836965 0.275096 0
0.845511 0.244433 0
0.390554 0.201858 0
0.400511 0.183507 0
0.412387 0.170709 0
0.47455 0.164909 0
0.482242 0.169448 0
0.421739 0.26035 0
0.406086 0.265001 0
0.390554 0.201858 0
0.903581 0.229821 0
0.999379 0.222319 0
1 0.222501 0
1 0.238641 0
0.904806 0.303973 0
0.886603 0.249319 0
0.903581 0.229821 0
0.433808 0.261282 0
0.516212 0.221123 0
0.498204 0.334556 0
0.494247 0.342268 0
0.437553 0.276049 0
0.433808 0.261282 0
0.563133 0.441708 0
0.52201 0.433282 0
0.519642 0.416353 0
0.605708 0.361215 0
0.637997 0.411582 0
0.563133 0.441708 0
0.433808 0.261282 0
0.421739 0.26035 0
0.482242 0.169448 0
0.535701 0.170234 0
0.534965 0.197212 0
0.516212 0.221123 0
0.433808 0.261282 0
0.494247 0.342268 0
0.498204 0.334556 0
0.57844 0.249622 0
0.583781 0.25422 0
0.579416 0.307339 0
0.505288 0.384112 0
0.487308 0.362548 0
0.494247 0.342268 0
0.579416 0.307339 0
0.608644 0.351193 0
0.605708 0.361215 0
0.519642 0.416353 0
[...]
CELL_DATA 200
FIELD FieldData 6
weight 1 200 float
 -0.0346427 -0.0069886 0.0499882 0.049369 -0.0146425 0.0503607 0.0493634 -0.00837386 0.0471764 0.049477 -0.0376705 0.0442743 0.0475205 -0.018043 0.0383718 -0.0276731 0.0338617 -0.0191144 0.0449222 0.0322537 -0.0169297 0.0308513 -0.0283132 0.0422309 0.0453971 -0.0391737 0.0444071 0.0278517 -0.0248015 -0.0297794 0.03457 -0.0189592 0.0366226 -0.0318169 -0.0341522 0.0393354 0.0331424 -0.0206121 -0.0245663 0.0232334 -0.0269009 0.034367 -0.0241581 0.0182819 -0.033928 -0.0326978 0.0219756 -0.032032 0.0219382 -0.0419784 0.0205857 -0.0376789 -0.0395342 0.0229169 -0.0381774 0.0203106 -0.0393729 -0.0405509 -3.84201e-17 -0.0402294 -0.0394003 -0.000111213 -0.03997 -0.0394564 0.00788844 -0.0454312 0.00753043 -0.0454083 0.0105157 -0.0446464 -0.0485661 0.00319059 -0.0481151 -0.00824475 -0.0246543 -0.0021314 -0.0195653 -0.0213061 0.0166909 -0.0223224 0.00602848 -0.0268461 -0.00933196 -0.0253603 -0.0343256 0.0174157 -0.0391146 0.0107236 -0.0344715 0.00681863 -0.0394403 0.0156433 0.00658684 -0.0522865 -0.0185263 -0.0482899 -0.0308366 -0.0489563 -0.0309157 -0.0453251 -0.0490579 -0.0322774 -0.0514853 -0.0357478 -0.0559495 -0.0523389 -0.0490647 -0.0502786 -0.0513094 -0.0829125 -0.0498339 -0.0834881 -0.0527587 -0.056749 -0.0814521 -0.0575487 -0.0833287 -0.0589979 -0.0817922 -0.0555082 -0.0503911 -0.0802282 -0.0502734 -0.0749668 -0.0598677 -0.0569677 -0.0728687 -0.0346763 -0.0728434 -0.0424654 -0.0826234 -0.0653311 -0.064839 -0.087346 -0.0594892 -0.0611658 -0.0598758 -0.0656973 -0.0660277 -0.0696065 -0.0569768 -0.0651854 -0.0647455 -0.0640687 -0.0821924 -0.0687475 -0.0569404 -0.0886029 -0.0781693 -0.0623218 -0.0555602 -0.0797895 -0.0538763 -0.0537711 -0.0531511 -0.0526027 -0.0842912 -0.0551692 -0.0837176 -0.0673743 -0.0636719 -0.0720556 -0.0632913 -0.082347 -0.0759784 -0.0713053 -0.0715944 -0.0654526 -0.0795849 -0.0690398 -0.0745079 -0.0781758 -0.0931648 -0.0646053 -0.0970973 -0.0970788 -0.096614 -0.104667 -0.0912462 -0.0888064 -0.0997209 -0.088852 -0.108588 -0.0908216 -0.0907194 -0.0851752 -0.101433 -0.0952261 -0.0882482 -0.111211 -0.0858659 -0.106741 -0.112065 -0.0843064 -0.121201 -0.0909837 -0.130881 -0.136673 -0.0917239 -0.0980549
num 1 200 float
 39 99 198 103 46 35 193 177 80 190 120 195 148 163 114 122 156 173 159 38 158 43 36 197 150 183 176 106 118 84 179 93 162 128 186 171 64 189 153 178 145 33 91 65 60 187 31 37 192 139 191 32 95 11 49 196 116 135 0 44 167 87 166 199 79 18 7 88 129 147 26 52 54 161 164 70 82 132 133 34 27 57 119 71 78 89 22 19 144 97 81 113 13 9 50 12 149 141 100 143 96 160 68 73 75 51 165 182 15 28 157 154 72 170 117 140 127 109 2 107 188 185 59 110 104 56 47 1 77 58 181 42 169 29 3 121 123 130 98 174 126 175 112 24 74 76 168 137 62 6 67 8 48 115 14 25 55 10 61 151 155 69 92 83 152 17 105 16 131 85 180 194 172 4 21 136 40 90 102 108 101 134 23 146 86 124 125 53 138 94 41 63 20 45 30 142 66 111 184 5
kind 1 200 float
 0 0 0 0 0 0 0 0 0 0 0 0 0 0 0 0 0 0 0 0 0 0 0 0 0 0 0 0 0 0 0 0 0 0 0 0 0 0 0 0 0 0 0 0 0 0 0 0 0 0 0 0 0 0 0 0 0 0 0 0 0 0 0 0 0 0 0 0 0 0 0 0 0 0 0 0 0 0 0 0 0 0 0 0 0 0 0 0 0 0 0 0 0 0 0 0 0 0 0 0 0 0 0 0 0 0 0 0 0 0 0 0 0 0 0 0 0 0 0 0 0 0 0 0 0 0 0 0 0 0 0 0 0 0 0 0 0 0 0 0 0 0 0 0 0 0 0 0 0 0 0 0 0 0 0 0 0 0 0 0 0 0 0 0 0 0 0 0 0 0 0 0 0 0 0 0 0 0 0 0 0 0 0 0 0 0 0 0 0 0 0 0 0 0 0 0 0 0 0 0
centroid_x 1 200 float
 0.234561 0.403549 0.055525 0.0228741 0.534737 0.0508626 0.130548 0.451002 0.164403 0.10315 0.350736 0.243679 0.17485 0.382141 0.312381 0.403736 0.335133 0.377816 0.22161 0.277299 0.307905 0.314281 0.453476 0.026371 0.0970173 0.488011 0.0543308 0.0261939 0.484329 0.612174 0.121936 0.568425 0.0856615 0.668136 0.716917 0.210137 0.183836 0.573758 0.615219 0.165054 0.66397 0.191016 0.628842 0.321946 0.730742 0.724363 0.244112 0.706824 0.288255 0.769554 0.416887 0.771799 0.835044 0.353371 0.780251 0.393333 0.820856 0.874882 0.513756 0.933879 0.968379 0.527434 0.957638 0.938541 0.465055 0.809242 0.451036 0.861808 0.37161 0.922451 0.870417 0.428688 0.936288 0.480543 0.579655 0.485597 0.538379 0.557818 0.0543819 0.615124 0.118834 0.689201 0.113299 0.652328 0.604259 0.196257 0.706038 0.28492 0.537484 0.318852 0.643143 0.13724 0.239717 0.537212 0.0343016 0.55534 0.0259096 0.60423 0.0923995 0.699088 0.753032 0.258793 0.662786 0.181736 0.736262 0.744583 0.824327 0.958903 0.90228 0.353947 0.966905 0.445286 0.795158 0.812329 0.38083 0.852673 0.485175 0.810548 0.40399 0.899329 0.944664 0.38186 0.97403 0.338769 0.893493 0.967266 0.296082 0.0527194 0.295188 0.128344 0.433654 0.134255 0.097917 0.487962 0.0368073 0.688352 0.25469 0.18619 0.206558 0.353603 0.608687 0.092559 0.148936 0.497852 0.626427 0.209162 0.369739 0.661551 0.277704 0.112339 0.321771 0.73334 0.0459979 0.0700527 0.0219271 0.41582 0.778838 0.122759 0.7198 0.222737 0.446755 0.818181 0.169599 0.839047 0.277272 0.24924 0.915921 0.197896 0.406448 0.976468 0.908499 0.409333 0.863471 0.0297243 0.777299 0.82752 0.713156 0.884782 0.917607 0.556703 0.968842 0.518453 0.930733 0.60391 0.640864 0.540997 0.763549 0.700043 0.603514 0.825994 0.564399 0.826322 0.974304 0.516341 0.861135 0.633998 0.9702 0.924031 0.67798 0.752609
centroid_y 1 200 float
 0.56035 0.317148 0.0219168 0.135373 0.257539 0.0792077 0.0650733 0.341828 0.140877 0.132159 0.539204 0.045166 0.0305278 0.397402 0.0246148 0.500666 0.0676105 0.452723 0.109646 0.178017 0.468298 0.121819 0.473132 0.274096 0.194298 0.531823 0.22438 0.365425 0.413469 0.0407477 0.312452 0.0883142 0.298422 0.0442483 0.0597139 0.188457 0.293541 0.187272 0.135409 0.360729 0.146305 0.23758 0.234412 0.296827 0.147624 0.206636 0.318283 0.25864 0.245152 0.262374 0.0276666 0.0308189 0.0606766 0.179248 0.105408 0.119035 0.151059 0.0648624 0.129387 0.0260975 0.107066 0.0392433 0.167113 0.0771578 0.0557264 0.257304 0.128787 0.206024 0.254198 0.19449 0.294955 0.205904 0.253637 0.276727 0.407295 0.20946 0.320065 0.363385 0.414245 0.300825 0.465868 0.308814 0.505966 0.366106 0.455591 0.41629 0.390134 0.363562 0.480283 0.389552 0.479112 0.425354 0.445686 0.623534 0.495117 0.555755 0.57705 0.572197 0.559576 0.480393 0.401397 0.519083 0.564841 0.563137 0.583098 0.517814 0.333022 0.294366 0.364638 0.814665 0.363366 0.835368 0.405596 0.45922 0.775916 0.465238 0.765779 0.54581 0.975062 0.468888 0.43089 0.90151 0.47964 0.918112 0.546411 0.560053 0.96723 0.633332 0.868717 0.617582 0.899893 0.701589 0.736936 0.923462 0.695381 0.632899 0.625828 0.653508 0.70809 0.684884 0.646146 0.794273 0.815557 0.639576 0.698324 0.774493 0.633811 0.752668 0.790832 0.879333 0.603048 0.66334 0.869134 0.953423 0.928924 0.578961 0.709838 0.973527 0.732129 0.860857 0.652074 0.606689 0.879774 0.669015 0.703345 0.922925 0.618768 0.965162 0.740758 0.647895 0.665447 0.709979 0.745395 0.777906 0.799563 0.78516 0.890078 0.838492 0.730325 0.900995 0.762706 0.975879 0.845503 0.938035 0.978901 0.726451 0.946844 0.952589 0.777973 0.975345 0.83672 0.871759 0.859739 0.818594 0.927835 0.862606 0.941413 0.969377 0.816276 0.854535
centroid_z 1 200 float
 0 0 0 0 0 0 0 0 0 0 0 0 0 0 0 0 0 0 0 0 0 0 0 0 0 0 0 0 0 0 0 0 0 0 0 0 0 0 0 0 0 0 0 0 0 0 0 0 0 0 0 0 0 0 0 0 0 0 0 0 0 0 0 0 0 0 0 0 0 0 0 0 0 0 0 0 0 0 0 0 0 0 0 0 0 0 0 0 0 0 0 0 0 0 0 0 0 0 0 0 0 0 0 0 0 0 0 0 0 0 0 0 0 0 0 0 0 0 0 0 0 0 0 0 0 0 0 0 0 0 0 0 0 0 0 0 0 0 0 0 0 0 0 0 0 0 0 0 0 0 0 0 0 0 0 0 0 0 0 0 0 0 0 0 0 0 0 0 0 0 0 0 0 0 0 0 0 0 0 0 0 0 0 0 0 0 0 0 0 0 0 0 0 0 0 0 0 0 0 0
